###############################################################################
# Pucher, F.J.;Roemer, S.R.;Karau, F.W.;Schnick, W. (2010)
# Chemistry - A European Journal 16, 7208-7214
# Phenakite - type Be P2 N4 - A possible precursor for a new hard spinel - \
# type material
# 
# CIF by ICSD-for-WWW,  Copyright 2003 FIZ-Karlsruhe & A.W.Hewat (hewat@ill.fr)
# NOT TO BE PUBLISHED IN ANY FORM. See http://icsd.ill.fr/icsd/conditions.html
###############################################################################

data_421385-ICSD
_database_code_ICSD                421385
_audit_creation_date               2011-02-01
_chemical_name_systematic
'Beryllium diphosphorus tetranitride'
_chemical_formula_structural       
'Be P2 N4'
_chemical_formula_sum              
'Be1 N4 P2'
_publ_section_title                
'Be1 N4 P2'
loop_
_citation_id
_citation_journal_abbrev
_citation_year
_citation_journal_volume
_citation_page_first
_citation_page_last
_citation_journal_id_ASTM
primary 'Chemistry - A European Journal' 2010 16 7208 7214 CEUJED
loop_
_publ_author_name
Pucher, F.J.;Roemer, S.R.;Karau, F.W.;Schnick, W.
_cell_length_a                     12.69451
_cell_length_b                     12.69451
_cell_length_c                     8.34858(15)
_cell_angle_alpha                  90.0
_cell_angle_beta                   90.0
_cell_angle_gamma                  120.0
_cell_volume                       1165.1303
_cell_formula_units_Z              18.000
_symmetry_space_group_name_H-M     'R -3'
_symmetry_Int_Tables_number        148
_refine_ls_R_factor_all            0.0866
loop_
_symmetry_equiv_pos_site_id
_symmetry_equiv_pos_as_xyz
   1   'x-y, x, -z'
   2   'y, -x+y, -z'
   3   '-x, -y, -z'
   4   '-x+y, -x, z'
   5   '-y, x-y, z'
   6   'x, y, z'
   7   'x-y+2/3, x+1/3, -z+1/3'
   8   'y+2/3, -x+y+1/3, -z+1/3'
   9   '-x+2/3, -y+1/3, -z+1/3'
  10   '-x+y+2/3, -x+1/3, z+1/3'
  11   '-y+2/3, x-y+1/3, z+1/3'
  12   'x+2/3, y+1/3, z+1/3'
  13   'x-y+1/3, x+2/3, -z+2/3'
  14   'y+1/3, -x+y+2/3, -z+2/3'
  15   '-x+1/3, -y+2/3, -z+2/3'
  16   '-x+y+1/3, -x+2/3, z+2/3'
  17   '-y+1/3, x-y+2/3, z+2/3'
  18   'x+1/3, y+2/3, z+2/3'
loop_
_atom_type_symbol
_atom_type_oxidation_number
Be2+     2.
N3-     -3.
P5+     5.
loop_
_atom_site_label
_atom_site_type_symbol
_atom_site_symmetry_multiplicity
_atom_site_Wyckoff_symbol
_atom_site_fract_x
_atom_site_fract_y
_atom_site_fract_z
_atom_site_B_iso_or_equiv
_atom_site_occupancy
Be1 Be2+ 18 f 0.2080(20) 0.2223(20) 0.249(4) 0.0025 1.0
N1 N3- 18 f 0.1936(10) 0.0730(8) 0.2486(15) 0.0029(11) 1.0
N2 N3- 18 f 0.3318(11) 0.3297(11) 0.2611(16) 0.0029(11) 1.0
N3 N3- 18 f 0.1293(10) 0.2158(10) 0.0805(15) 0.0029(11) 1.0
N4 N3- 18 f 0.1297(13) 0.2275(10) 0.4192(15) 0.0029(11) 1.0
P1 P5+ 18 f 0.2127(5) 0.0208(4) 0.4165(7) 0.0224(17) 1.0
P2 P5+ 18 f 0.2011(5) 0.0061(5) 0.0770(7) 0.0414(20) 1.0
#End of data_421385-ICSD

